<?xml version="1.0" encoding="UTF-8"?>

<!-- generated on 2023-12-21 11:12:53 by Eclipse SUMO sumo Version 1.12.0
<configuration xmlns:xsi="http://www.w3.org/2001/XMLSchema-instance" xsi:noNamespaceSchemaLocation="http://sumo.dlr.de/xsd/sumoConfiguration.xsd">

    <input>
        <net-file value="campus.net.xml"/>
        <route-files value="campus.rou.xml"/>
    </input>

    <output>
        <fcd-output value="fcd.xml"/>
        <fcd-output.geo value="true"/>
    </output>

    <time>
        <begin value="0"/>
        <end value="1000"/>
    </time>

</configuration>
-->

<fcd-export xmlns:xsi="http://www.w3.org/2001/XMLSchema-instance" xsi:noNamespaceSchemaLocation="http://sumo.dlr.de/xsd/fcd_file.xsd">
    <timestep time="0.00">
        <vehicle id="0" x="-0.609810" y="44.801801" angle="157.860105" type="DEFAULT_VEHTYPE" speed="0.000000" pos="5.100000" lane="25670174#9_0" slope="0.000000"/>
    </timestep>
    <timestep time="1.00">
        <vehicle id="0" x="-0.609800" y="44.801781" angle="157.860105" type="DEFAULT_VEHTYPE" speed="2.414341" pos="7.514341" lane="25670174#9_0" slope="0.000000"/>
        <vehicle id="1" x="-0.607536" y="44.804308" angle="337.724187" type="DEFAULT_VEHTYPE" speed="0.000000" pos="5.100000" lane="-309286214#1_0" slope="0.000000"/>
    </timestep>
    <timestep time="2.00">
        <vehicle id="0" x="-0.609783" y="44.801748" angle="157.860105" type="DEFAULT_VEHTYPE" speed="3.870837" pos="11.385179" lane="25670174#9_0" slope="0.000000"/>
        <vehicle id="1" x="-0.607547" y="44.804328" angle="337.724187" type="DEFAULT_VEHTYPE" speed="2.430281" pos="7.530281" lane="-309286214#1_0" slope="0.000000"/>
        <vehicle id="2" x="-0.609302" y="44.795684" angle="338.826384" type="DEFAULT_VEHTYPE" speed="0.000000" pos="5.100000" lane="25928106#9_0" slope="0.000000"/>
    </timestep>
    <timestep time="3.00">
        <vehicle id="0" x="-0.609756" y="44.801698" angle="157.860105" type="DEFAULT_VEHTYPE" speed="5.995317" pos="17.380495" lane="25670174#9_0" slope="0.000000"/>
        <vehicle id="1" x="-0.607566" y="44.804364" angle="337.724187" type="DEFAULT_VEHTYPE" speed="4.221405" pos="11.751685" lane="-309286214#1_0" slope="0.000000"/>
        <vehicle id="2" x="-0.609312" y="44.795706" angle="338.826384" type="DEFAULT_VEHTYPE" speed="2.506886" pos="7.606886" lane="25928106#9_0" slope="0.000000"/>
        <vehicle id="3" x="-0.618079" y="44.794098" angle="157.912249" type="DEFAULT_VEHTYPE" speed="0.000000" pos="5.100000" lane="45272629#3_0" slope="0.000000"/>
    </timestep>
    <timestep time="4.00">
        <vehicle id="0" x="-0.609718" y="44.801626" angle="157.860105" type="DEFAULT_VEHTYPE" speed="8.551882" pos="25.932377" lane="25670174#9_0" slope="0.000000"/>
        <vehicle id="1" x="-0.607593" y="44.804415" angle="337.724187" type="DEFAULT_VEHTYPE" speed="6.130610" pos="17.882295" lane="-309286214#1_0" slope="0.000000"/>
        <vehicle id="2" x="-0.609332" y="44.795745" angle="338.826384" type="DEFAULT_VEHTYPE" speed="4.624560" pos="12.231446" lane="25928106#9_0" slope="0.000000"/>
        <vehicle id="3" x="-0.618071" y="44.794081" angle="157.912249" type="DEFAULT_VEHTYPE" speed="2.029624" pos="7.129624" lane="45272629#3_0" slope="0.000000"/>
        <vehicle id="4" x="-0.614559" y="44.792148" angle="157.701452" type="DEFAULT_VEHTYPE" speed="0.000000" pos="5.100000" lane="193285740#1_0" slope="0.000000"/>
    </timestep>
    <timestep time="5.00">
        <vehicle id="0" x="-0.609674" y="44.801540" angle="157.860105" type="DEFAULT_VEHTYPE" speed="10.142230" pos="36.074607" lane="25670174#9_0" slope="0.000000"/>
        <vehicle id="1" x="-0.607631" y="44.804488" angle="337.724187" type="DEFAULT_VEHTYPE" speed="8.575801" pos="26.458096" lane="-309286214#1_0" slope="0.000000"/>
        <vehicle id="2" x="-0.609357" y="44.795796" angle="338.825698" type="DEFAULT_VEHTYPE" speed="5.963117" pos="0.064563" lane=":5195888691_0_0" slope="0.000000"/>
        <vehicle id="3" x="-0.618053" y="44.794048" angle="157.912249" type="DEFAULT_VEHTYPE" speed="3.984050" pos="11.113675" lane="45272629#3_0" slope="0.000000"/>
        <vehicle id="4" x="-0.614552" y="44.792135" angle="157.701452" type="DEFAULT_VEHTYPE" speed="1.627124" pos="6.727124" lane="193285740#1_0" slope="0.000000"/>
        <vehicle id="5" x="-0.606903" y="44.793735" angle="190.556326" type="DEFAULT_VEHTYPE" speed="0.000000" pos="5.100000" lane="-25928101#1_0" slope="0.000000"/>
    </timestep>
    <timestep time="6.00">
        <vehicle id="0" x="-0.609619" y="44.801435" angle="157.860105" type="DEFAULT_VEHTYPE" speed="12.414435" pos="48.489042" lane="25670174#9_0" slope="0.000000"/>
        <vehicle id="1" x="-0.607680" y="44.804580" angle="337.724187" type="DEFAULT_VEHTYPE" speed="10.935794" pos="37.393890" lane="-309286214#1_0" slope="0.000000"/>
        <vehicle id="2" x="-0.609385" y="44.795858" angle="340.964773" type="DEFAULT_VEHTYPE" speed="7.281979" pos="2.346542" lane="25928106#10_0" slope="0.000000"/>
        <vehicle id="3" x="-0.618024" y="44.793993" angle="157.912249" type="DEFAULT_VEHTYPE" speed="6.542953" pos="17.656627" lane="45272629#3_0" slope="0.000000"/>
        <vehicle id="4" x="-0.614539" y="44.792109" angle="157.701452" type="DEFAULT_VEHTYPE" speed="2.994686" pos="9.721810" lane="193285740#1_0" slope="0.000000"/>
        <vehicle id="5" x="-0.606908" y="44.793718" angle="190.556326" type="DEFAULT_VEHTYPE" speed="1.918951" pos="7.018951" lane="-25928101#1_0" slope="0.000000"/>
        <vehicle id="6" x="-0.623406" y="44.798539" angle="161.142092" type="DEFAULT_VEHTYPE" speed="0.000000" pos="5.100000" lane="-24564600#3_0" slope="0.000000"/>
    </timestep>
    <timestep time="7.00">
        <vehicle id="0" x="-0.609466" y="44.801397" angle="79.874746" type="DEFAULT_VEHTYPE" speed="14.109209" pos="62.598251" lane="25670174#9_0" slope="0.000000"/>
        <vehicle id="1" x="-0.607732" y="44.804680" angle="337.724187" type="DEFAULT_VEHTYPE" speed="11.885368" pos="49.279257" lane="-309286214#1_0" slope="0.000000"/>
        <vehicle id="2" x="-0.609345" y="44.795897" angle="41.007654" type="DEFAULT_VEHTYPE" speed="5.873978" pos="4.490519" lane=":5195888652_2_0" slope="0.000000"/>
        <vehicle id="3" x="-0.617988" y="44.793923" angle="157.912249" type="DEFAULT_VEHTYPE" speed="8.270242" pos="25.926869" lane="45272629#3_0" slope="0.000000"/>
        <vehicle id="4" x="-0.614516" y="44.792067" angle="157.701452" type="DEFAULT_VEHTYPE" speed="5.100153" pos="14.821963" lane="193285740#1_0" slope="0.000000"/>
        <vehicle id="5" x="-0.606917" y="44.793686" angle="190.556326" type="DEFAULT_VEHTYPE" speed="3.641125" pos="10.660076" lane="-25928101#1_0" slope="0.000000"/>
        <vehicle id="6" x="-0.623398" y="44.798518" angle="161.142092" type="DEFAULT_VEHTYPE" speed="2.361558" pos="7.461558" lane="-24564600#3_0" slope="0.000000"/>
        <vehicle id="7" x="-0.618579" y="44.794805" angle="247.729189" type="DEFAULT_VEHTYPE" speed="0.000000" pos="4.010000" lane="25670585#7_0" slope="0.000000"/>
    </timestep>
    <timestep time="8.00">
        <vehicle id="0" x="-0.609293" y="44.801442" angle="68.413005" type="DEFAULT_VEHTYPE" speed="14.592225" pos="77.190477" lane="25670174#9_0" slope="0.000000"/>
        <vehicle id="1" x="-0.607790" y="44.804789" angle="337.724187" type="DEFAULT_VEHTYPE" speed="12.980383" pos="62.259641" lane="-309286214#1_0" slope="0.000000"/>
        <vehicle id="2" x="-0.609275" y="44.795915" angle="69.339053" type="DEFAULT_VEHTYPE" speed="5.879556" pos="5.150076" lane="25928106#11_0" slope="0.000000"/>
        <vehicle id="3" x="-0.617945" y="44.793841" angle="157.912249" type="DEFAULT_VEHTYPE" speed="9.693182" pos="35.620052" lane="45272629#3_0" slope="0.000000"/>
        <vehicle id="4" x="-0.614484" y="44.792006" angle="157.701452" type="DEFAULT_VEHTYPE" speed="7.230628" pos="22.052591" lane="193285740#1_0" slope="0.000000"/>
        <vehicle id="5" x="-0.606933" y="44.793636" angle="190.555717" type="DEFAULT_VEHTYPE" speed="5.643498" pos="16.303573" lane="-25928101#1_0" slope="0.000000"/>
        <vehicle id="6" x="-0.623384" y="44.798486" angle="161.142092" type="DEFAULT_VEHTYPE" speed="3.724967" pos="11.186525" lane="-24564600#3_0" slope="0.000000"/>
        <vehicle id="7" x="-0.618609" y="44.794797" angle="247.716713" type="DEFAULT_VEHTYPE" speed="2.554291" pos="2.554291" lane=":4446057316_0_0" slope="0.000000"/>
        <vehicle id="8" x="-0.608174" y="44.795940" angle="192.683510" type="DEFAULT_VEHTYPE" speed="0.000000" pos="5.100000" lane="-25928101#11_0" slope="0.000000"/>
    </timestep>
    <timestep time="9.00">
        <vehicle id="0" x="-0.609158" y="44.801477" angle="68.413005" type="DEFAULT_VEHTYPE" speed="11.345928" pos="88.536405" lane="25670174#9_0" slope="0.000000"/>
        <vehicle id="1" x="-0.607846" y="44.804894" angle="337.724187" type="DEFAULT_VEHTYPE" speed="12.489770" pos="74.749411" lane="-309286214#1_0" slope="0.000000"/>
        <vehicle id="2" x="-0.609188" y="44.795936" angle="69.339053" type="DEFAULT_VEHTYPE" speed="7.279226" pos="12.429302" lane="25928106#11_0" slope="0.000000"/>
        <vehicle id="3" x="-0.617895" y="44.793745" angle="157.912249" type="DEFAULT_VEHTYPE" speed="11.373252" pos="46.993304" lane="45272629#3_0" slope="0.000000"/>
        <vehicle id="4" x="-0.614462" y="44.791963" angle="157.701452" type="DEFAULT_VEHTYPE" speed="5.002770" pos="27.055361" lane="193285740#1_0" slope="0.000000"/>
        <vehicle id="5" x="-0.606954" y="44.793565" angle="190.503802" type="DEFAULT_VEHTYPE" speed="8.085082" pos="3.378656" lane=":5195891051_0_0" slope="0.000000"/>
        <vehicle id="6" x="-0.623364" y="44.798440" angle="161.142092" type="DEFAULT_VEHTYPE" speed="5.344041" pos="16.530565" lane="-24564600#3_0" slope="0.000000"/>
        <vehicle id="7" x="-0.618659" y="44.794783" angle="247.718102" type="DEFAULT_VEHTYPE" speed="4.219649" pos="1.733940" lane="25670585#8_0" slope="0.000000"/>
        <vehicle id="8" x="-0.608178" y="44.795928" angle="192.683510" type="DEFAULT_VEHTYPE" speed="1.376754" pos="6.476754" lane="-25928101#11_0" slope="0.000000"/>
        <vehicle id="9" x="-0.608275" y="44.796075" angle="275.864743" type="DEFAULT_VEHTYPE" speed="0.000000" pos="5.100000" lane="291450281#6_0" slope="0.000000"/>
    </timestep>
    <timestep time="10.00">
        <vehicle id="0" x="-0.609072" y="44.801499" angle="68.413005" type="DEFAULT_VEHTYPE" speed="7.227950" pos="95.764355" lane="25670174#9_0" slope="0.000000"/>
        <vehicle id="1" x="-0.607896" y="44.804991" angle="337.759892" type="DEFAULT_VEHTYPE" speed="11.420436" pos="1.189847" lane="-309286214#0_0" slope="0.000000"/>
        <vehicle id="10" x="-0.604193" y="44.795530" angle="286.616486" type="DEFAULT_VEHTYPE" speed="0.000000" pos="5.100000" lane="291450281#0_0" slope="0.000000"/>
        <vehicle id="2" x="-0.609076" y="44.795963" angle="69.385112" type="DEFAULT_VEHTYPE" speed="9.323909" pos="4.493211" lane=":5195888695_1_0" slope="0.000000"/>
        <vehicle id="3" x="-0.617837" y="44.793635" angle="157.912249" type="DEFAULT_VEHTYPE" speed="13.033593" pos="60.026897" lane="45272629#3_0" slope="0.000000"/>
        <vehicle id="4" x="-0.614435" y="44.791918" angle="155.777788" type="DEFAULT_VEHTYPE" speed="5.428966" pos="2.304327" lane=":279853537_3_0" slope="0.000000"/>
        <vehicle id="5" x="-0.606976" y="44.793492" angle="190.523912" type="DEFAULT_VEHTYPE" speed="8.326290" pos="6.704946" lane="-25928101#0_0" slope="0.000000"/>
        <vehicle id="6" x="-0.623335" y="44.798380" angle="159.592241" type="DEFAULT_VEHTYPE" speed="7.070937" pos="23.601502" lane="-24564600#3_0" slope="0.000000"/>
        <vehicle id="7" x="-0.618730" y="44.794764" angle="247.728296" type="DEFAULT_VEHTYPE" speed="6.008892" pos="7.742832" lane="25670585#8_0" slope="0.000000"/>
        <vehicle id="8" x="-0.608187" y="44.795905" angle="192.683510" type="DEFAULT_VEHTYPE" speed="2.704960" pos="9.181714" lane="-25928101#11_0" slope="0.000000"/>
        <vehicle id="9" x="-0.608295" y="44.796077" angle="276.587288" type="DEFAULT_VEHTYPE" speed="1.665960" pos="6.765960" lane="291450281#6_0" slope="0.000000"/>
    </timestep>
    <timestep time="11.00">
        <vehicle id="0" x="-0.609032" y="44.801509" angle="68.413005" type="DEFAULT_VEHTYPE" speed="3.360776" pos="99.125130" lane="25670174#9_0" slope="0.000000"/>
        <vehicle id="1" x="-0.607928" y="44.805051" angle="337.730988" type="DEFAULT_VEHTYPE" speed="7.163470" pos="8.353317" lane="-309286214#0_0" slope="0.000000"/>
        <vehicle id="10" x="-0.604216" y="44.795534" angle="281.846559" type="DEFAULT_VEHTYPE" speed="1.849238" pos="6.949238" lane="291450281#0_0" slope="0.000000"/>
        <vehicle id="11" x="-0.620253" y="44.797279" angle="117.310389" type="DEFAULT_VEHTYPE" speed="0.000000" pos="5.100000" lane="-45272663#2_0" slope="0.000000"/>
        <vehicle id="2" x="-0.608938" y="44.795997" angle="69.346357" type="DEFAULT_VEHTYPE" speed="11.571941" pos="11.065152" lane="25928106#12_0" slope="0.000000"/>
        <vehicle id="3" x="-0.617776" y="44.793519" angle="157.912249" type="DEFAULT_VEHTYPE" speed="13.827427" pos="73.854324" lane="45272629#3_0" slope="0.000000"/>
        <vehicle id="4" x="-0.614377" y="44.791895" angle="111.125643" type="DEFAULT_VEHTYPE" speed="5.944325" pos="0.488652" lane="25670996#0_0" slope="0.000000"/>
        <vehicle id="5" x="-0.606990" y="44.793447" angle="190.523912" type="DEFAULT_VEHTYPE" speed="5.147772" pos="11.852718" lane="-25928101#0_0" slope="0.000000"/>
        <vehicle id="6" x="-0.623299" y="44.798305" angle="159.592241" type="DEFAULT_VEHTYPE" speed="8.805697" pos="32.407199" lane="-24564600#3_0" slope="0.000000"/>
        <vehicle id="7" x="-0.618811" y="44.794743" angle="247.728296" type="DEFAULT_VEHTYPE" speed="6.886764" pos="14.629597" lane="25670585#8_0" slope="0.000000"/>
        <vehicle id="8" x="-0.608200" y="44.795868" angle="192.683510" type="DEFAULT_VEHTYPE" speed="4.143165" pos="13.324879" lane="-25928101#11_0" slope="0.000000"/>
        <vehicle id="9" x="-0.608340" y="44.796082" angle="276.689217" type="DEFAULT_VEHTYPE" speed="3.555406" pos="1.171366" lane=":3151663393_4_0" slope="0.000000"/>
    </timestep>
    <timestep time="12.00">
        <vehicle id="0" x="-0.609024" y="44.801533" angle="33.494501" type="DEFAULT_VEHTYPE" speed="3.293341" pos="1.618471" lane=":3090851710_11_0" slope="0.000000"/>
        <vehicle id="1" x="-0.607948" y="44.805092" angle="339.492543" type="DEFAULT_VEHTYPE" speed="4.808810" pos="1.102126" lane=":279617824_4_0" slope="0.000000"/>
        <vehicle id="10" x="-0.604270" y="44.795543" angle="280.752841" type="DEFAULT_VEHTYPE" speed="4.397866" pos="11.347104" lane="291450281#0_0" slope="0.000000"/>
        <vehicle id="11" x="-0.620229" y="44.797270" angle="117.310389" type="DEFAULT_VEHTYPE" speed="2.201692" pos="7.301692" lane="-45272663#2_0" slope="0.000000"/>
        <vehicle id="12" x="-0.615426" y="44.802649" angle="225.352354" type="DEFAULT_VEHTYPE" speed="0.000000" pos="5.100000" lane="751833238_0" slope="0.000000"/>
        <vehicle id="2" x="-0.608847" y="44.796019" angle="69.305423" type="DEFAULT_VEHTYPE" speed="7.645909" pos="2.021061" lane="25928106#13_0" slope="0.000000"/>
        <vehicle id="3" x="-0.617714" y="44.793399" angle="157.912249" type="DEFAULT_VEHTYPE" speed="14.188021" pos="88.042345" lane="45272629#3_0" slope="0.000000"/>
        <vehicle id="4" x="-0.614291" y="44.791918" angle="68.002805" type="DEFAULT_VEHTYPE" speed="7.285673" pos="7.774326" lane="25670996#0_0" slope="0.000000"/>
        <vehicle id="5" x="-0.607012" y="44.793411" angle="200.172257" type="DEFAULT_VEHTYPE" speed="4.366451" pos="3.349169" lane=":282831189_0_0" slope="0.000000"/>
        <vehicle id="6" x="-0.623250" y="44.798214" angle="156.845469" type="DEFAULT_VEHTYPE" speed="10.860255" pos="43.267454" lane="-24564600#3_0" slope="0.000000"/>
        <vehicle id="7" x="-0.618885" y="44.794723" angle="247.728296" type="DEFAULT_VEHTYPE" speed="6.206075" pos="20.835672" lane="25670585#8_0" slope="0.000000"/>
        <vehicle id="8" x="-0.608221" y="44.795810" angle="192.683510" type="DEFAULT_VEHTYPE" speed="6.688188" pos="20.013068" lane="-25928101#11_0" slope="0.000000"/>
        <vehicle id="9" x="-0.608406" y="44.796089" angle="277.022794" type="DEFAULT_VEHTYPE" speed="5.270101" pos="6.441467" lane=":3151663393_4_0" slope="0.000000"/>
    </timestep>
    <timestep time="13.00">
        <vehicle id="0" x="-0.609058" y="44.801533" angle="300.093542" type="DEFAULT_VEHTYPE" speed="2.910300" pos="1.298771" lane="-53024866#0_0" slope="0.000000"/>
        <vehicle id="1" x="-0.607930" y="44.805136" angle="17.055598" type="DEFAULT_VEHTYPE" speed="5.509829" pos="6.611956" lane=":279617824_4_0" slope="0.000000"/>
        <vehicle id="10" x="-0.604342" y="44.795554" angle="280.809997" type="DEFAULT_VEHTYPE" speed="5.814072" pos="17.161176" lane="291450281#0_0" slope="0.000000"/>
        <vehicle id="11" x="-0.620182" y="44.797251" angle="117.310389" type="DEFAULT_VEHTYPE" speed="4.215327" pos="11.517019" lane="-45272663#2_0" slope="0.000000"/>
        <vehicle id="12" x="-0.615453" y="44.802636" angle="232.889891" type="DEFAULT_VEHTYPE" speed="2.507441" pos="7.607441" lane="751833238_0" slope="0.000000"/>
        <vehicle id="13" x="-0.619799" y="44.804885" angle="180.289468" type="DEFAULT_VEHTYPE" speed="0.000000" pos="5.100000" lane="-25487388#1_0" slope="0.000000"/>
        <vehicle id="2" x="-0.608809" y="44.796029" angle="69.338321" type="DEFAULT_VEHTYPE" speed="3.145909" pos="5.166969" lane="25928106#13_0" slope="0.000000"/>
        <vehicle id="3" x="-0.617656" y="44.793287" angle="157.912249" type="DEFAULT_VEHTYPE" speed="13.265175" pos="101.307520" lane="45272629#3_0" slope="0.000000"/>
        <vehicle id="4" x="-0.614185" y="44.791946" angle="68.002805" type="DEFAULT_VEHTYPE" speed="8.881677" pos="16.656002" lane="25670996#0_0" slope="0.000000"/>
        <vehicle id="5" x="-0.607066" y="44.793399" angle="249.117779" type="DEFAULT_VEHTYPE" speed="4.802543" pos="8.151712" lane=":282831189_0_0" slope="0.000000"/>
        <vehicle id="6" x="-0.623163" y="44.798114" angle="143.284145" type="DEFAULT_VEHTYPE" speed="13.178887" pos="56.446341" lane="-24564600#3_0" slope="0.000000"/>
        <vehicle id="7" x="-0.618969" y="44.794701" angle="247.728296" type="DEFAULT_VEHTYPE" speed="7.080404" pos="27.916076" lane="25670585#8_0" slope="0.000000"/>
        <vehicle id="8" x="-0.608249" y="44.795731" angle="192.683510" type="DEFAULT_VEHTYPE" speed="9.114405" pos="29.127473" lane="-25928101#11_0" slope="0.000000"/>
        <vehicle id="9" x="-0.608499" y="44.796099" angle="277.275317" type="DEFAULT_VEHTYPE" speed="7.462629" pos="2.244097" lane=":cluster_10842301906_3151663396_5195888692_6_0" slope="0.000000"/>
    </timestep>
    <timestep time="14.00">
        <vehicle id="0" x="-0.609120" y="44.801517" angle="248.407597" type="DEFAULT_VEHTYPE" speed="5.231754" pos="6.530525" lane="-53024866#0_0" slope="0.000000"/>
        <vehicle id="1" x="-0.607868" y="44.805156" angle="64.821841" type="DEFAULT_VEHTYPE" speed="5.322545" pos="2.904501" lane="-25650354#3_0" slope="0.000000"/>
        <vehicle id="10" x="-0.604434" y="44.795568" angle="280.809997" type="DEFAULT_VEHTYPE" speed="7.460418" pos="24.621594" lane="291450281#0_0" slope="0.000000"/>
        <vehicle id="11" x="-0.620107" y="44.797222" angle="117.310389" type="DEFAULT_VEHTYPE" speed="6.804476" pos="18.321495" lane="-45272663#2_0" slope="0.000000"/>
        <vehicle id="12" x="-0.615502" y="44.802613" angle="234.652512" type="DEFAULT_VEHTYPE" speed="4.659007" pos="2.556449" lane=":cluster_2377424310_2377424314_0_0" slope="0.000000"/>
        <vehicle id="13" x="-0.619800" y="44.804870" angle="180.289468" type="DEFAULT_VEHTYPE" speed="1.750653" pos="6.850653" lane="-25487388#1_0" slope="0.000000"/>
        <vehicle id="14" x="-0.614346" y="44.795847" angle="198.834913" type="DEFAULT_VEHTYPE" speed="0.000000" pos="5.100000" lane="34600338#1_0" slope="0.000000"/>
        <vehicle id="2" x="-0.608802" y="44.796030" angle="69.338321" type="DEFAULT_VEHTYPE" speed="0.589725" pos="5.756694" lane="25928106#13_0" slope="0.000000"/>
        <vehicle id="3" x="-0.617617" y="44.793213" angle="157.799590" type="DEFAULT_VEHTYPE" speed="8.765175" pos="3.802695" lane=":691474480_12_0" slope="0.000000"/>
        <vehicle id="4" x="-0.614058" y="44.791980" angle="68.002805" type="DEFAULT_VEHTYPE" speed="10.742056" pos="27.398058" lane="25670996#0_0" slope="0.000000"/>
        <vehicle id="5" x="-0.607133" y="44.793407" angle="278.488116" type="DEFAULT_VEHTYPE" speed="5.327615" pos="4.469328" lane="-1078568644#0_0" slope="0.000000"/>
        <vehicle id="6" x="-0.623029" y="44.798011" angle="131.931574" type="DEFAULT_VEHTYPE" speed="15.625367" pos="6.291709" lane=":268395503_7_0" slope="0.000000"/>
        <vehicle id="7" x="-0.619042" y="44.794681" angle="247.728296" type="DEFAULT_VEHTYPE" speed="6.225150" pos="34.141226" lane="25670585#8_0" slope="0.000000"/>
        <vehicle id="8" x="-0.608264" y="44.795690" angle="192.683510" type="DEFAULT_VEHTYPE" speed="4.614405" pos="33.741878" lane="-25928101#11_0" slope="0.000000"/>
        <vehicle id="9" x="-0.608624" y="44.796113" angle="276.927808" type="DEFAULT_VEHTYPE" speed="9.988201" pos="12.232298" lane=":cluster_10842301906_3151663396_5195888692_6_0" slope="0.000000"/>
    </timestep>
    <timestep time="15.00">
        <vehicle id="0" x="-0.609212" y="44.801493" angle="248.407597" type="DEFAULT_VEHTYPE" speed="7.694744" pos="14.225269" lane="-53024866#0_0" slope="0.000000"/>
        <vehicle id="1" x="-0.607779" y="44.805179" angle="68.214609" type="DEFAULT_VEHTYPE" speed="7.503924" pos="10.408425" lane="-25650354#3_0" slope="0.000000"/>
        <vehicle id="10" x="-0.604553" y="44.795587" angle="280.809997" type="DEFAULT_VEHTYPE" speed="9.635609" pos="34.257204" lane="291450281#0_0" slope="0.000000"/>
        <vehicle id="11" x="-0.620007" y="44.797183" angle="117.310389" type="DEFAULT_VEHTYPE" speed="8.980721" pos="27.302216" lane="-45272663#2_0" slope="0.000000"/>
        <vehicle id="12" x="-0.615572" y="44.802592" angle="246.487636" type="DEFAULT_VEHTYPE" speed="6.043311" pos="3.109759" lane="24567187#0_0" slope="0.000000"/>
        <vehicle id="13" x="-0.619802" y="44.804837" angle="180.289468" type="DEFAULT_VEHTYPE" speed="3.656841" pos="10.507494" lane="-25487388#1_0" slope="0.000000"/>
        <vehicle id="14" x="-0.614356" y="44.795828" angle="198.834913" type="DEFAULT_VEHTYPE" speed="2.247742" pos="7.347742" lane="34600338#1_0" slope="0.000000"/>
        <vehicle id="15" x="-0.606071" y="44.795822" angle="280.422621" type="DEFAULT_VEHTYPE" speed="0.000000" pos="5.100000" lane="291450281#2_0" slope="0.000000"/>
        <vehicle id="2" x="-0.608796" y="44.796032" angle="69.338321" type="DEFAULT_VEHTYPE" speed="0.486889" pos="6.243583" lane="25928106#13_0" slope="0.000000"/>
        <vehicle id="3" x="-0.617598" y="44.793177" angle="157.741530" type="DEFAULT_VEHTYPE" speed="4.265175" pos="0.717870" lane="45272629#4_0" slope="0.000000"/>
        <vehicle id="4" x="-0.613901" y="44.792021" angle="68.040765" type="DEFAULT_VEHTYPE" speed="13.273912" pos="1.271970" lane="25670996#1_0" slope="0.000000"/>
        <vehicle id="5" x="-0.607215" y="44.793418" angle="279.271308" type="DEFAULT_VEHTYPE" speed="6.645085" pos="4.084412" lane=":5195891045_0_0" slope="0.000000"/>
        <vehicle id="6" x="-0.622854" y="44.797923" angle="118.478549" type="DEFAULT_VEHTYPE" speed="16.980951" pos="9.642659" lane="-24564600#2_0" slope="0.000000"/>
        <vehicle id="7" x="-0.619123" y="44.794659" angle="247.728296" type="DEFAULT_VEHTYPE" speed="6.792537" pos="40.933763" lane="25670585#8_0" slope="0.000000"/>
        <vehicle id="8" x="-0.608278" y="44.795656" angle="194.869628" type="DEFAULT_VEHTYPE" speed="3.982443" pos="1.974321" lane=":282831310_0_0" slope="0.000000"/>
        <vehicle id="9" x="-0.608765" y="44.796128" angle="276.927808" type="DEFAULT_VEHTYPE" speed="11.295091" pos="23.527389" lane=":cluster_10842301906_3151663396_5195888692_6_0" slope="0.000000"/>
    </timestep>
    <timestep time="16.00">
        <vehicle id="0" x="-0.609324" y="44.801464" angle="248.407597" type="DEFAULT_VEHTYPE" speed="9.421206" pos="23.646476" lane="-53024866#0_0" slope="0.000000"/>
        <vehicle id="1" x="-0.607666" y="44.805208" angle="68.214609" type="DEFAULT_VEHTYPE" speed="9.510130" pos="19.918555" lane="-25650354#3_0" slope="0.000000"/>
        <vehicle id="10" x="-0.604699" y="44.795610" angle="280.749507" type="DEFAULT_VEHTYPE" speed="11.808041" pos="46.065245" lane="291450281#0_0" slope="0.000000"/>
        <vehicle id="11" x="-0.619887" y="44.797135" angle="117.015757" type="DEFAULT_VEHTYPE" speed="10.917871" pos="1.780087" lane=":2555921439_6_0" slope="0.000000"/>
        <vehicle id="12" x="-0.615671" y="44.802562" angle="244.887110" type="DEFAULT_VEHTYPE" speed="8.519142" pos="11.628901" lane="24567187#0_0" slope="0.000000"/>
        <vehicle id="13" x="-0.619804" y="44.804785" angle="180.289468" type="DEFAULT_VEHTYPE" speed="5.746561" pos="16.254054" lane="-25487388#1_0" slope="0.000000"/>
        <vehicle id="14" x="-0.614374" y="44.795793" angle="198.834913" type="DEFAULT_VEHTYPE" speed="4.110371" pos="11.458113" lane="34600338#1_0" slope="0.000000"/>
        <vehicle id="15" x="-0.606095" y="44.795826" angle="280.422621" type="DEFAULT_VEHTYPE" speed="1.976771" pos="7.076771" lane="291450281#2_0" slope="0.000000"/>
        <vehicle id="2" x="-0.608796" y="44.796032" angle="69.338321" type="DEFAULT_VEHTYPE" speed="0.005258" pos="6.248841" lane="25928106#13_0" slope="0.000000"/>
        <vehicle id="3" x="-0.617580" y="44.793157" angle="151.159438" type="DEFAULT_VEHTYPE" speed="2.785585" pos="0.993455" lane=":279854948_8_0" slope="0.000000"/>
        <vehicle id="4" x="-0.613745" y="44.792062" angle="68.014517" type="DEFAULT_VEHTYPE" speed="13.149574" pos="14.421544" lane="25670996#1_0" slope="0.000000"/>
        <vehicle id="5" x="-0.607322" y="44.793433" angle="279.259525" type="DEFAULT_VEHTYPE" speed="8.638339" pos="7.722751" lane="-1078568645#1_0" slope="0.000000"/>
        <vehicle id="6" x="-0.622636" y="44.797850" angle="111.622903" type="DEFAULT_VEHTYPE" speed="19.124095" pos="28.766754" lane="-24564600#2_0" slope="0.000000"/>
        <vehicle id="7" x="-0.619209" y="44.794636" angle="247.728565" type="DEFAULT_VEHTYPE" speed="7.267979" pos="48.201743" lane="25670585#8_0" slope="0.000000"/>
        <vehicle id="8" x="-0.608320" y="44.795646" angle="250.309770" type="DEFAULT_VEHTYPE" speed="5.033277" pos="7.007598" lane=":282831310_0_0" slope="0.000000"/>
        <vehicle id="9" x="-0.608911" y="44.796145" angle="277.995643" type="DEFAULT_VEHTYPE" speed="11.707228" pos="8.214616" lane="291450281#9_0" slope="0.000000"/>
    </timestep>
    <timestep time="17.00">
        <vehicle id="0" x="-0.609457" y="44.801430" angle="248.407597" type="DEFAULT_VEHTYPE" speed="11.213810" pos="34.860285" lane="-53024866#0_0" slope="0.000000"/>
        <vehicle id="1" x="-0.607526" y="44.805245" angle="68.260931" type="DEFAULT_VEHTYPE" speed="11.865160" pos="0.223715" lane="-25650354#2_0" slope="0.000000"/>
        <vehicle id="10" x="-0.604869" y="44.795637" angle="280.763829" type="DEFAULT_VEHTYPE" speed="13.746667" pos="10.341912" lane=":282830745_4_0" slope="0.000000"/>
        <vehicle id="11" x="-0.619746" y="44.797082" angle="115.683647" type="DEFAULT_VEHTYPE" speed="12.604674" pos="5.034761" lane="-45272663#1_0" slope="0.000000"/>
        <vehicle id="12" x="-0.615783" y="44.802524" angle="242.239640" type="DEFAULT_VEHTYPE" speed="9.854688" pos="21.483590" lane="24567187#0_0" slope="0.000000"/>
        <vehicle id="13" x="-0.619807" y="44.804719" angle="180.289468" type="DEFAULT_VEHTYPE" speed="7.329760" pos="23.583814" lane="-25487388#1_0" slope="0.000000"/>
        <vehicle id="14" x="-0.614386" y="44.795762" angle="195.105532" type="DEFAULT_VEHTYPE" speed="3.617713" pos="0.575825" lane=":279851003_1_0" slope="0.000000"/>
        <vehicle id="15" x="-0.606136" y="44.795832" angle="280.422621" type="DEFAULT_VEHTYPE" speed="3.278163" pos="10.354935" lane="291450281#2_0" slope="0.000000"/>
        <vehicle id="17" x="-0.609964" y="44.803372" angle="356.692756" type="DEFAULT_VEHTYPE" speed="0.000000" pos="5.100000" lane="-944746123#1_0" slope="0.000000"/>
        <vehicle id="2" x="-0.608796" y="44.796032" angle="69.338321" type="DEFAULT_VEHTYPE" speed="0.000101" pos="6.248942" lane="25928106#13_0" slope="0.000000"/>
        <vehicle id="3" x="-0.617554" y="44.793167" angle="94.503129" type="DEFAULT_VEHTYPE" speed="3.065862" pos="4.059317" lane=":279854948_8_0" slope="0.000000"/>
        <vehicle id="4" x="-0.613589" y="44.792103" angle="68.014517" type="DEFAULT_VEHTYPE" speed="13.121210" pos="27.542754" lane="25670996#1_0" slope="0.000000"/>
        <vehicle id="5" x="-0.607457" y="44.793452" angle="280.004315" type="DEFAULT_VEHTYPE" speed="10.889377" pos="4.752128" lane="-1078568645#0_0" slope="0.000000"/>
        <vehicle id="6" x="-0.622398" y="44.797777" angle="111.622903" type="DEFAULT_VEHTYPE" speed="20.531297" pos="49.298051" lane="-24564600#2_0" slope="0.000000"/>
        <vehicle id="7" x="-0.619290" y="44.794615" angle="247.728834" type="DEFAULT_VEHTYPE" speed="6.863935" pos="55.065677" lane="25670585#8_0" slope="0.000000"/>
        <vehicle id="8" x="-0.608344" y="44.795685" angle="333.157284" type="DEFAULT_VEHTYPE" speed="4.692220" pos="1.409818" lane="25928121#0_0" slope="0.000000"/>
        <vehicle id="9" x="-0.609050" y="44.796162" angle="277.995643" type="DEFAULT_VEHTYPE" speed="11.194391" pos="19.409007" lane="291450281#9_0" slope="0.000000"/>
    </timestep>
    <timestep time="18.00">
        <vehicle id="0" x="-0.609592" y="44.801467" angle="325.126979" type="DEFAULT_VEHTYPE" speed="13.481776" pos="48.342061" lane="-53024866#0_0" slope="0.000000"/>