<?xml version="1.0" encoding="UTF-8"?>

<!-- generated on 2025-01-03 21:21:38 by Eclipse SUMO GUI Version 1.12.0
<configuration xmlns:xsi="http://www.w3.org/2001/XMLSchema-instance" xsi:noNamespaceSchemaLocation="http://sumo.dlr.de/xsd/sumoConfiguration.xsd">

    <input>
        <net-file value="campus.net.xml"/>
        <route-files value="campus.rou.xml"/>
        <additional-files value="collision_settings.add.xml"/>
    </input>

    <output>
        <fcd-output value="fcd_output.xml"/>
        <tripinfo-output value="tripinfo_output.xml"/>
    </output>

    <time>
        <begin value="0"/>
        <end value="1000"/>
    </time>

    <report>
        <message-log value="results/sumo-0.log"/>
        <no-step-log value="true"/>
    </report>

    <traci_server>
        <remote-port value="47181"/>
    </traci_server>

    <random_number>
        <seed value="23423"/>
    </random_number>

    <gui_only>
        <quit-on-end value="true"/>
    </gui_only>

</configuration>
-->

<fcd-export xmlns:xsi="http://www.w3.org/2001/XMLSchema-instance" xsi:noNamespaceSchemaLocation="http://sumo.dlr.de/xsd/fcd_file.xsd">
    <timestep time="0.00"/>
    <timestep time="1.00">
        <vehicle id="1gnss" x="1626.10" y="1818.68" angle="337.72" type="DEFAULT_VEHTYPE" speed="0.00" pos="5.10" lane="-309286214#1_0" slope="0.00"/>
    </timestep>
    <timestep time="2.00">
        <vehicle id="1gnss" x="1625.18" y="1820.91" angle="337.72" type="DEFAULT_VEHTYPE" speed="2.41" pos="7.51" lane="-309286214#1_0" slope="0.00"/>
        <vehicle id="2gnss" x="1514.63" y="856.68" angle="338.83" type="DEFAULT_VEHTYPE" speed="0.00" pos="5.10" lane="25928106#9_0" slope="0.00"/>
    </timestep>
    <timestep time="3.00">
        <vehicle id="1gnss" x="1623.71" y="1824.50" angle="337.72" type="DEFAULT_VEHTYPE" speed="3.87" pos="11.39" lane="-309286214#1_0" slope="0.00"/>
        <vehicle id="2gnss" x="1513.72" y="859.02" angle="338.83" type="DEFAULT_VEHTYPE" speed="2.51" pos="7.61" lane="25928106#9_0" slope="0.00"/>
        <vehicle id="3gnss" x="825.52" y="660.10" angle="157.91" type="DEFAULT_VEHTYPE" speed="0.00" pos="5.10" lane="45272629#3_0" slope="0.00"/>
    </timestep>
    <timestep time="4.00">
        <vehicle id="1gnss" x="1621.33" y="1830.33" angle="337.72" type="DEFAULT_VEHTYPE" speed="6.30" pos="17.69" lane="-309286214#1_0" slope="0.00"/>
        <vehicle id="1gps" x="1626.10" y="1818.68" angle="337.72" type="DEFAULT_VEHTYPE" speed="0.00" pos="5.10" lane="-309286214#1_0" slope="0.00"/>
        <vehicle id="2gnss" x="1512.05" y="863.33" angle="338.83" type="DEFAULT_VEHTYPE" speed="4.62" pos="12.23" lane="25928106#9_0" slope="0.00"/>
        <vehicle id="3gnss" x="826.28" y="658.22" angle="157.91" type="DEFAULT_VEHTYPE" speed="2.03" pos="7.13" lane="45272629#3_0" slope="0.00"/>
        <vehicle id="4gnss" x="1110.31" y="451.65" angle="157.70" type="DEFAULT_VEHTYPE" speed="0.00" pos="5.10" lane="193285740#1_0" slope="0.00"/>
    </timestep>
    <timestep time="5.00">
        <vehicle id="1gnss" x="1618.13" y="1838.12" angle="337.72" type="DEFAULT_VEHTYPE" speed="8.43" pos="26.11" lane="-309286214#1_0" slope="0.00"/>
        <vehicle id="1gps" x="1625.42" y="1820.34" angle="337.72" type="DEFAULT_VEHTYPE" speed="1.79" pos="6.89" lane="-309286214#1_0" slope="0.00"/>
        <vehicle id="2gnss" x="1509.90" y="868.89" angle="338.83" type="DEFAULT_VEHTYPE" speed="5.96" pos="0.06" lane=":5195888691_0_0" slope="0.00"/>
        <vehicle id="2gps" x="1514.63" y="856.68" angle="338.83" type="DEFAULT_VEHTYPE" speed="0.00" pos="5.10" lane="25928106#9_0" slope="0.00"/>
        <vehicle id="3gnss" x="827.78" y="654.53" angle="157.91" type="DEFAULT_VEHTYPE" speed="3.98" pos="11.11" lane="45272629#3_0" slope="0.00"/>
        <vehicle id="4gnss" x="1110.93" y="450.15" angle="157.70" type="DEFAULT_VEHTYPE" speed="1.63" pos="6.73" lane="193285740#1_0" slope="0.00"/>
        <vehicle id="5gnss" x="1710.78" y="645.69" angle="190.56" type="DEFAULT_VEHTYPE" speed="0.00" pos="5.10" lane="-25928101#1_0" slope="0.00"/>
    </timestep>
    <timestep time="6.00">
        <vehicle id="1gnss" x="1613.97" y="1848.29" angle="337.72" type="DEFAULT_VEHTYPE" speed="10.98" pos="37.09" lane="-309286214#1_0" slope="0.00"/>
        <vehicle id="1gps" x="1624.02" y="1823.76" angle="337.72" type="DEFAULT_VEHTYPE" speed="3.70" pos="10.59" lane="-309286214#1_0" slope="0.00"/>
        <vehicle id="2gnss" x="1507.44" y="875.73" angle="340.96" type="DEFAULT_VEHTYPE" speed="7.28" pos="2.35" lane="25928106#10_0" slope="0.00"/>
        <vehicle id="2gps" x="1513.87" y="858.64" angle="338.83" type="DEFAULT_VEHTYPE" speed="2.11" pos="7.21" lane="25928106#9_0" slope="0.00"/>
        <vehicle id="3gnss" x="830.24" y="648.47" angle="157.91" type="DEFAULT_VEHTYPE" speed="6.54" pos="17.66" lane="45272629#3_0" slope="0.00"/>
        <vehicle id="3gps" x="825.52" y="660.10" angle="157.91" type="DEFAULT_VEHTYPE" speed="0.00" pos="5.10" lane="45272629#3_0" slope="0.00"/>
        <vehicle id="4gnss" x="1112.07" y="447.38" angle="157.70" type="DEFAULT_VEHTYPE" speed="2.99" pos="9.72" lane="193285740#1_0" slope="0.00"/>
        <vehicle id="5gnss" x="1710.42" y="643.81" angle="190.56" type="DEFAULT_VEHTYPE" speed="1.92" pos="7.02" lane="-25928101#1_0" slope="0.00"/>
        <vehicle id="6gnss" x="389.75" y="1141.00" angle="161.14" type="DEFAULT_VEHTYPE" speed="0.00" pos="5.10" lane="-24564600#3_0" slope="0.00"/>
    </timestep>
    <timestep time="7.00">
        <vehicle id="1gnss" x="1609.20" y="1859.92" angle="337.72" type="DEFAULT_VEHTYPE" speed="12.57" pos="49.67" lane="-309286214#1_0" slope="0.00"/>
        <vehicle id="1gps" x="1621.69" y="1829.45" angle="337.72" type="DEFAULT_VEHTYPE" speed="6.15" pos="16.74" lane="-309286214#1_0" slope="0.00"/>
        <vehicle id="2gnss" x="1510.53" y="880.18" angle="41.01" type="DEFAULT_VEHTYPE" speed="5.87" pos="4.49" lane=":5195888652_2_0" slope="0.00"/>
        <vehicle id="2gps" x="1512.62" y="861.85" angle="338.83" type="DEFAULT_VEHTYPE" speed="3.45" pos="10.65" lane="25928106#9_0" slope="0.00"/>
        <vehicle id="3gnss" x="833.35" y="640.81" angle="157.91" type="DEFAULT_VEHTYPE" speed="8.27" pos="25.93" lane="45272629#3_0" slope="0.00"/>
        <vehicle id="3gps" x="826.05" y="658.79" angle="157.91" type="DEFAULT_VEHTYPE" speed="1.42" pos="6.52" lane="45272629#3_0" slope="0.00"/>
        <vehicle id="4gnss" x="1114.01" y="442.63" angle="157.70" type="DEFAULT_VEHTYPE" speed="5.13" pos="14.85" lane="193285740#1_0" slope="0.00"/>
        <vehicle id="4gps" x="1110.31" y="451.65" angle="157.70" type="DEFAULT_VEHTYPE" speed="0.00" pos="5.10" lane="193285740#1_0" slope="0.00"/>
        <vehicle id="5gnss" x="1709.76" y="640.23" angle="190.56" type="DEFAULT_VEHTYPE" speed="3.64" pos="10.66" lane="-25928101#1_0" slope="0.00"/>
        <vehicle id="6gnss" x="390.51" y="1138.77" angle="161.14" type="DEFAULT_VEHTYPE" speed="2.36" pos="7.46" lane="-24564600#3_0" slope="0.00"/>
        <vehicle id="7gnss" x="783.72" y="737.42" angle="247.73" type="DEFAULT_VEHTYPE" speed="0.00" pos="4.01" lane="25670585#7_0" slope="0.00"/>
    </timestep>
    <timestep time="8.00">
        <vehicle id="1gnss" x="1603.75" y="1873.24" angle="337.72" type="DEFAULT_VEHTYPE" speed="14.40" pos="64.06" lane="-309286214#1_0" slope="0.00"/>
        <vehicle id="1gps" x="1618.46" y="1837.32" angle="337.72" type="DEFAULT_VEHTYPE" speed="8.51" pos="25.24" lane="-309286214#1_0" slope="0.00"/>
        <vehicle id="2gnss" x="1516.01" y="882.31" angle="69.34" type="DEFAULT_VEHTYPE" speed="5.88" pos="5.15" lane="25928106#11_0" slope="0.00"/>
        <vehicle id="2gps" x="1510.90" y="866.30" angle="338.83" type="DEFAULT_VEHTYPE" speed="4.76" pos="15.41" lane="25928106#9_0" slope="0.00"/>
        <vehicle id="3gnss" x="837.09" y="631.59" angle="157.91" type="DEFAULT_VEHTYPE" speed="9.95" pos="35.88" lane="45272629#3_0" slope="0.00"/>
        <vehicle id="3gps" x="827.21" y="655.93" angle="157.91" type="DEFAULT_VEHTYPE" speed="3.08" pos="9.61" lane="45272629#3_0" slope="0.00"/>
        <vehicle id="4gnss" x="1116.62" y="436.27" angle="157.70" type="DEFAULT_VEHTYPE" speed="6.88" pos="21.73" lane="193285740#1_0" slope="0.00"/>
        <vehicle id="4gps" x="1111.12" y="449.68" angle="157.70" type="DEFAULT_VEHTYPE" speed="2.13" pos="7.23" lane="193285740#1_0" slope="0.00"/>
        <vehicle id="5gnss" x="1708.72" y="634.68" angle="190.56" type="DEFAULT_VEHTYPE" speed="5.64" pos="16.30" lane="-25928101#1_0" slope="0.00"/>
        <vehicle id="5gps" x="1710.78" y="645.69" angle="190.56" type="DEFAULT_VEHTYPE" speed="0.00" pos="5.10" lane="-25928101#1_0" slope="0.00"/>
        <vehicle id="6gnss" x="391.72" y="1135.24" angle="161.14" type="DEFAULT_VEHTYPE" speed="3.72" pos="11.19" lane="-24564600#3_0" slope="0.00"/>
        <vehicle id="7gnss" x="781.36" y="736.45" angle="247.72" type="DEFAULT_VEHTYPE" speed="2.55" pos="2.55" lane=":4446057316_0_0" slope="0.00"/>
        <vehicle id="8gnss" x="1603.01" y="887.69" angle="192.68" type="DEFAULT_VEHTYPE" speed="0.00" pos="5.10" lane="-25928101#11_0" slope="0.00"/>
    </timestep>
    <timestep time="9.00">
        <vehicle id="1gnss" x="1598.40" y="1886.30" angle="337.75" type="DEFAULT_VEHTYPE" speed="14.11" pos="2.59" lane=":3575304824_0_0" slope="0.00"/>
        <vehicle id="1gps" x="1614.69" y="1846.53" angle="337.72" type="DEFAULT_VEHTYPE" speed="9.96" pos="35.20" lane="-309286214#1_0" slope="0.00"/>
        <vehicle id="2gnss" x="1522.82" y="884.88" angle="69.34" type="DEFAULT_VEHTYPE" speed="7.28" pos="12.43" lane="25928106#11_0" slope="0.00"/>
        <vehicle id="2gps" x="1508.54" y="872.38" angle="338.79" type="DEFAULT_VEHTYPE" speed="6.52" pos="3.81" lane=":5195888691_0_0" slope="0.00"/>
        <vehicle id="3gnss" x="841.35" y="621.08" angle="157.91" type="DEFAULT_VEHTYPE" speed="11.34" pos="47.22" lane="45272629#3_0" slope="0.00"/>
        <vehicle id="3gps" x="829.03" y="651.45" angle="157.91" type="DEFAULT_VEHTYPE" speed="4.83" pos="14.44" lane="45272629#3_0" slope="0.00"/>
        <vehicle id="4gnss" x="1118.66" y="431.30" angle="157.70" type="DEFAULT_VEHTYPE" speed="5.37" pos="27.10" lane="193285740#1_0" slope="0.00"/>
        <vehicle id="4gps" x="1112.48" y="446.37" angle="157.70" type="DEFAULT_VEHTYPE" speed="3.58" pos="10.81" lane="193285740#1_0" slope="0.00"/>
        <vehicle id="5gnss" x="1707.25" y="626.73" angle="190.50" type="DEFAULT_VEHTYPE" speed="8.09" pos="3.38" lane=":5195891051_0_0" slope="0.00"/>
        <vehicle id="5gps" x="1710.37" y="643.53" angle="190.56" type="DEFAULT_VEHTYPE" speed="2.20" pos="7.30" lane="-25928101#1_0" slope="0.00"/>
        <vehicle id="6gnss" x="393.44" y="1130.19" angle="161.14" type="DEFAULT_VEHTYPE" speed="5.34" pos="16.53" lane="-24564600#3_0" slope="0.00"/>
        <vehicle id="6gps" x="389.75" y="1141.00" angle="161.14" type="DEFAULT_VEHTYPE" speed="0.00" pos="5.10" lane="-24564600#3_0" slope="0.00"/>
        <vehicle id="7gnss" x="777.46" y="734.85" angle="247.72" type="DEFAULT_VEHTYPE" speed="4.22" pos="1.73" lane="25670585#8_0" slope="0.00"/>
        <vehicle id="8gnss" x="1602.71" y="886.35" angle="192.68" type="DEFAULT_VEHTYPE" speed="1.38" pos="6.48" lane="-25928101#11_0" slope="0.00"/>
        <vehicle id="9gnss" x="1594.60" y="902.42" angle="275.86" type="DEFAULT_VEHTYPE" speed="0.00" pos="5.10" lane="291450281#6_0" slope="0.00"/>
    </timestep>
    <timestep time="10.00">
        <vehicle id="10gnss" x="1919.19" y="851.46" angle="286.62" type="DEFAULT_VEHTYPE" speed="0.00" pos="5.10" lane="291450281#0_0" slope="0.00"/>
        <vehicle id="1gnss" x="1594.45" y="1895.95" angle="337.74" type="DEFAULT_VEHTYPE" speed="10.42" pos="3.61" lane="-309286214#0_0" slope="0.00"/>
        <vehicle id="1gps" x="1609.98" y="1858.03" angle="337.72" type="DEFAULT_VEHTYPE" speed="12.43" pos="47.63" lane="-309286214#1_0" slope="0.00"/>
        <vehicle id="2gnss" x="1531.55" y="888.16" angle="69.39" type="DEFAULT_VEHTYPE" speed="9.32" pos="4.49" lane=":5195888695_1_0" slope="0.00"/>
        <vehicle id="2gps" x="1508.41" y="878.78" angle="6.51" type="DEFAULT_VEHTYPE" speed="6.85" pos="1.93" lane=":5195888652_2_0" slope="0.00"/>
        <vehicle id="3gnss" x="846.42" y="608.61" angle="157.91" type="DEFAULT_VEHTYPE" speed="13.46" pos="60.67" lane="45272629#3_0" slope="0.00"/>
        <vehicle id="3gps" x="831.36" y="645.70" angle="157.91" type="DEFAULT_VEHTYPE" speed="6.21" pos="20.65" lane="45272629#3_0" slope="0.00"/>
        <vehicle id="4gnss" x="1121.02" y="426.06" angle="155.47" type="DEFAULT_VEHTYPE" speed="5.75" pos="2.67" lane=":279853537_3_0" slope="0.00"/>
        <vehicle id="4gps" x="1114.82" y="440.67" angle="157.70" type="DEFAULT_VEHTYPE" speed="6.17" pos="16.98" lane="193285740#1_0" slope="0.00"/>
        <vehicle id="5gnss" x="1705.73" y="618.54" angle="190.52" type="DEFAULT_VEHTYPE" speed="8.33" pos="6.70" lane="-25928101#0_0" slope="0.00"/>
        <vehicle id="5gps" x="1709.62" y="639.52" angle="190.56" type="DEFAULT_VEHTYPE" speed="4.08" pos="11.38" lane="-25928101#1_0" slope="0.00"/>
        <vehicle id="6gnss" x="395.90" y="1123.56" angle="159.59" type="DEFAULT_VEHTYPE" speed="7.07" pos="23.60" lane="-24564600#3_0" slope="0.00"/>
        <vehicle id="6gps" x="390.31" y="1139.36" angle="161.14" type="DEFAULT_VEHTYPE" speed="1.73" pos="6.83" lane="-24564600#3_0" slope="0.00"/>
        <vehicle id="7gnss" x="771.90" y="732.58" angle="247.73" type="DEFAULT_VEHTYPE" speed="6.01" pos="7.74" lane="25670585#8_0" slope="0.00"/>
        <vehicle id="7gps" x="783.72" y="737.42" angle="247.73" type="DEFAULT_VEHTYPE" speed="0.00" pos="4.01" lane="25670585#7_0" slope="0.00"/>
        <vehicle id="8gnss" x="1602.11" y="883.71" angle="192.68" type="DEFAULT_VEHTYPE" speed="2.70" pos="9.18" lane="-25928101#11_0" slope="0.00"/>
        <vehicle id="9gnss" x="1592.94" y="902.61" angle="276.59" type="DEFAULT_VEHTYPE" speed="1.67" pos="6.77" lane="291450281#6_0" slope="0.00"/>
    </timestep>
    <timestep time="11.00">
        <vehicle id="10gnss" x="1916.68" y="851.93" angle="280.69" type="DEFAULT_VEHTYPE" speed="2.55" pos="7.65" lane="291450281#0_0" slope="0.00"/>
        <vehicle id="11gnss" x="643.26" y="1008.42" angle="117.31" type="DEFAULT_VEHTYPE" speed="0.00" pos="5.10" lane="-45272663#2_0" slope="0.00"/>
        <vehicle id="1gnss" x="1592.18" y="1901.51" angle="337.73" type="DEFAULT_VEHTYPE" speed="6.00" pos="9.62" lane="-309286214#0_0" slope="0.00"/>
        <vehicle id="1gps" x="1605.06" y="1870.04" angle="337.72" type="DEFAULT_VEHTYPE" speed="12.98" pos="60.61" lane="-309286214#1_0" slope="0.00"/>
        <vehicle id="2gnss" x="1542.37" y="892.24" angle="69.35" type="DEFAULT_VEHTYPE" speed="11.57" pos="11.07" lane="25928106#12_0" slope="0.00"/>
        <vehicle id="2gps" x="1513.91" y="881.52" angle="66.66" type="DEFAULT_VEHTYPE" speed="6.20" pos="2.91" lane="25928106#11_0" slope="0.00"/>
        <vehicle id="3gnss" x="851.58" y="595.89" angle="157.91" type="DEFAULT_VEHTYPE" speed="13.73" pos="74.40" lane="45272629#3_0" slope="0.00"/>
        <vehicle id="3gps" x="834.36" y="638.32" angle="157.91" type="DEFAULT_VEHTYPE" speed="7.96" pos="28.61" lane="45272629#3_0" slope="0.00"/>
        <vehicle id="4gnss" x="1126.03" y="424.17" angle="103.35" type="DEFAULT_VEHTYPE" speed="6.09" pos="1.00" lane="25670996#0_0" slope="0.00"/>
        <vehicle id="4gps" x="1117.18" y="434.91" angle="157.70" type="DEFAULT_VEHTYPE" speed="6.22" pos="23.20" lane="193285740#1_0" slope="0.00"/>
        <vehicle id="5gnss" x="1704.79" y="613.48" angle="190.52" type="DEFAULT_VEHTYPE" speed="5.15" pos="11.85" lane="-25928101#0_0" slope="0.00"/>
        <vehicle id="5gps" x="1708.53" y="633.65" angle="190.56" type="DEFAULT_VEHTYPE" speed="5.97" pos="17.35" lane="-25928101#1_0" slope="0.00"/>
        <vehicle id="6gnss" x="399.16" y="1114.80" angle="159.59" type="DEFAULT_VEHTYPE" speed="9.34" pos="32.94" lane="-24564600#3_0" slope="0.00"/>
        <vehicle id="6gps" x="391.53" y="1135.78" angle="161.14" type="DEFAULT_VEHTYPE" speed="3.79" pos="10.62" lane="-24564600#3_0" slope="0.00"/>
        <vehicle id="7gnss" x="764.39" y="729.50" angle="247.73" type="DEFAULT_VEHTYPE" speed="8.12" pos="15.86" lane="25670585#8_0" slope="0.00"/>
        <vehicle id="7gps" x="781.38" y="736.46" angle="247.72" type="DEFAULT_VEHTYPE" speed="2.53" pos="2.53" lane=":4446057316_0_0" slope="0.00"/>
        <vehicle id="8gnss" x="1601.20" y="879.67" angle="192.68" type="DEFAULT_VEHTYPE" speed="4.14" pos="13.32" lane="-25928101#11_0" slope="0.00"/>
        <vehicle id="8gps" x="1603.01" y="887.69" angle="192.68" type="DEFAULT_VEHTYPE" speed="0.00" pos="5.10" lane="-25928101#11_0" slope="0.00"/>
        <vehicle id="9gnss" x="1589.41" y="903.02" angle="276.69" type="DEFAULT_VEHTYPE" speed="3.56" pos="1.17" lane=":3151663393_4_0" slope="0.00"/>
    </timestep>
    <timestep time="12.00">
        <vehicle id="10gnss" x="1912.79" y="852.68" angle="280.76" type="DEFAULT_VEHTYPE" speed="3.96" pos="11.61" lane="291450281#0_0" slope="0.00"/>
        <vehicle id="11gnss" x="645.22" y="1007.41" angle="117.31" type="DEFAULT_VEHTYPE" speed="2.20" pos="7.30" lane="-45272663#2_0" slope="0.00"/>
        <vehicle id="12gnss" x="1007.50" y="1616.06" angle="225.35" type="DEFAULT_VEHTYPE" speed="0.00" pos="5.10" lane="751833238_0" slope="0.00"/>
        <vehicle id="1gnss" x="1590.86" y="1907.56" angle="350.47" type="DEFAULT_VEHTYPE" speed="6.33" pos="3.89" lane=":279617824_4_0" slope="0.00"/>
        <vehicle id="1gps" x="1601.84" y="1877.89" angle="337.72" type="DEFAULT_VEHTYPE" speed="8.48" pos="69.09" lane="-309286214#1_0" slope="0.00"/>
        <vehicle id="2gnss" x="1549.52" y="894.94" angle="69.31" type="DEFAULT_VEHTYPE" speed="7.65" pos="2.02" lane="25928106#13_0" slope="0.00"/>
        <vehicle id="2gps" x="1521.25" y="884.28" angle="69.34" type="DEFAULT_VEHTYPE" speed="7.84" pos="10.75" lane="25928106#11_0" slope="0.00"/>
        <vehicle id="3gnss" x="856.52" y="583.70" angle="157.91" type="DEFAULT_VEHTYPE" speed="13.15" pos="87.55" lane="45272629#3_0" slope="0.00"/>
        <vehicle id="3gps" x="838.01" y="629.32" angle="157.91" type="DEFAULT_VEHTYPE" speed="9.72" pos="38.32" lane="45272629#3_0" slope="0.00"/>
        <vehicle id="4gnss" x="1132.92" y="426.95" angle="68.00" type="DEFAULT_VEHTYPE" speed="7.43" pos="8.43" lane="25670996#0_0" slope="0.00"/>
        <vehicle id="4gps" x="1119.02" y="430.42" angle="157.70" type="DEFAULT_VEHTYPE" speed="4.85" pos="28.05" lane="193285740#1_0" slope="0.00"/>
        <vehicle id="5gnss" x="1702.74" y="608.97" angle="204.55" type="DEFAULT_VEHTYPE" speed="5.07" pos="4.05" lane=":282831189_0_0" slope="0.00"/>
        <vehicle id="5gps" x="1706.98" y="625.29" angle="190.48" type="DEFAULT_VEHTYPE" speed="8.49" pos="4.83" lane=":5195891051_0_0" slope="0.00"/>
        <vehicle id="6gnss" x="403.73" y="1103.94" angle="156.85" type="DEFAULT_VEHTYPE" speed="11.79" pos="44.73" lane="-24564600#3_0" slope="0.00"/>
        <vehicle id="6gps" x="393.40" y="1130.32" angle="161.14" type="DEFAULT_VEHTYPE" speed="5.77" pos="16.39" lane="-24564600#3_0" slope="0.00"/>
        <vehicle id="7gnss" x="757.40" y="726.64" angle="247.73" type="DEFAULT_VEHTYPE" speed="7.55" pos="23.41" lane="25670585#8_0" slope="0.00"/>
        <vehicle id="7gps" x="776.86" y="734.61" angle="247.72" type="DEFAULT_VEHTYPE" speed="4.89" pos="2.38" lane="25670585#8_0" slope="0.00"/>
        <vehicle id="8gnss" x="1599.74" y="873.14" angle="192.68" type="DEFAULT_VEHTYPE" speed="6.69" pos="20.01" lane="-25928101#11_0" slope="0.00"/>
        <vehicle id="8gps" x="1602.86" y="887.04" angle="192.68" type="DEFAULT_VEHTYPE" speed="0.68" pos="5.78" lane="-25928101#11_0" slope="0.00"/>
        <vehicle id="9gnss" x="1584.18" y="903.67" angle="277.02" type="DEFAULT_VEHTYPE" speed="5.27" pos="6.44" lane=":3151663393_4_0" slope="0.00"/>
        <vehicle id="9gps" x="1594.60" y="902.42" angle="275.86" type="DEFAULT_VEHTYPE" speed="0.00" pos="5.10" lane="291450281#6_0" slope="0.00"/>
    </timestep>
    <timestep time="13.00">
        <vehicle id="10gnss" x="1907.28" y="853.73" angle="280.81" type="DEFAULT_VEHTYPE" speed="5.61" pos="17.22" lane="291450281#0_0" slope="0.00"/>
        <vehicle id="10gps" x="1919.19" y="851.46" angle="286.62" type="DEFAULT_VEHTYPE" speed="0.00" pos="5.10" lane="291450281#0_0" slope="0.00"/>
        <vehicle id="11gnss" x="648.96" y="1005.48" angle="117.31" type="DEFAULT_VEHTYPE" speed="4.22" pos="11.52" lane="-45272663#2_0" slope="0.00"/>
        <vehicle id="12gnss" x="1005.47" y="1614.59" angle="232.89" type="DEFAULT_VEHTYPE" speed="2.51" pos="7.61" lane="751833238_0" slope="0.00"/>
        <vehicle id="13gnss" x="654.37" y="1854.38" angle="180.29" type="DEFAULT_VEHTYPE" speed="0.00" pos="5.10" lane="-25487388#1_0" slope="0.00"/>
        <vehicle id="1gnss" x="1595.41" y="1911.47" angle="55.74" type="DEFAULT_VEHTYPE" speed="6.30" pos="1.16" lane="-25650354#3_0" slope="0.00"/>
        <vehicle id="1gps" x="1597.85" y="1887.65" angle="337.76" type="DEFAULT_VEHTYPE" speed="10.54" pos="4.05" lane=":3575304824_0_0" slope="0.00"/>
        <vehicle id="2gnss" x="1552.46" y="896.05" angle="69.34" type="DEFAULT_VEHTYPE" speed="3.15" pos="5.17" lane="25928106#13_0" slope="0.00"/>
        <vehicle id="2gps" x="1530.60" y="887.80" angle="69.37" type="DEFAULT_VEHTYPE" speed="9.99" pos="3.48" lane=":5195888695_1_0" slope="0.00"/>
        <vehicle id="3gnss" x="861.36" y="571.78" angle="157.91" type="DEFAULT_VEHTYPE" speed="12.86" pos="100.42" lane="45272629#3_0" slope="0.00"/>
        <vehicle id="3gps" x="841.91" y="619.71" angle="157.91" type="DEFAULT_VEHTYPE" speed="10.36" pos="48.69" lane="45272629#3_0" slope="0.00"/>
        <vehicle id="4gnss" x="1141.29" y="430.33" angle="68.00" type="DEFAULT_VEHTYPE" speed="9.02" pos="17.45" lane="25670996#0_0" slope="0.00"/>
        <vehicle id="4gps" x="1120.83" y="426.45" angle="155.84" type="DEFAULT_VEHTYPE" speed="4.36" pos="2.23" lane=":279853537_3_0" slope="0.00"/>
        <vehicle id="5gnss" x="1697.53" y="608.06" angle="263.37" type="DEFAULT_VEHTYPE" speed="5.50" pos="0.54" lane="-1078568644#0_0" slope="0.00"/>
        <vehicle id="5gps" x="1705.82" y="619.04" angle="190.52" type="DEFAULT_VEHTYPE" speed="6.36" pos="6.20" lane="-25928101#0_0" slope="0.00"/>
        <vehicle id="6gnss" x="411.24" y="1093.27" angle="143.28" type="DEFAULT_VEHTYPE" speed="13.09" pos="57.82" lane="-24564600#3_0" slope="0.00"/>
        <vehicle id="6gps" x="395.95" y="1123.43" angle="159.59" type="DEFAULT_VEHTYPE" speed="7.35" pos="23.74" lane="-24564600#3_0" slope="0.00"/>
        <vehicle id="7gnss" x="749.61" y="723.45" angle="247.73" type="DEFAULT_VEHTYPE" speed="8.42" pos="31.83" lane="25670585#8_0" slope="0.00"/>
        <vehicle id="7gps" x="771.00" y="732.21" angle="247.73" type="DEFAULT_VEHTYPE" speed="6.33" pos="8.71" lane="25670585#8_0" slope="0.00"/>
        <vehicle id="8gnss" x="1597.90" y="864.97" angle="192.68" type="DEFAULT_VEHTYPE" speed="8.37" pos="28.39" lane="-25928101#11_0" slope="0.00"/>
        <vehicle id="8gps" x="1602.38" y="884.91" angle="192.68" type="DEFAULT_VEHTYPE" speed="2.17" pos="7.95" lane="-25928101#11_0" slope="0.00"/>
        <vehicle id="9gnss" x="1576.78" y="904.60" angle="277.28" type="DEFAULT_VEHTYPE" speed="7.46" pos="2.24" lane=":cluster_10842301906_3151663396_5195888692_6_0" slope="0.00"/>
        <vehicle id="9gps" x="1592.75" y="902.63" angle="276.59" type="DEFAULT_VEHTYPE" speed="1.85" pos="6.95" lane="291450281#6_0" slope="0.00"/>
    </timestep>
    <timestep time="14.00">
        <vehicle id="10gnss" x="1899.63" y="855.19" angle="280.81" type="DEFAULT_VEHTYPE" speed="7.79" pos="25.01" lane="291450281#0_0" slope="0.00"/>
        <vehicle id="10gps" x="1917.05" y="851.86" angle="281.02" type="DEFAULT_VEHTYPE" speed="2.17" pos="7.27" lane="291450281#0_0" slope="0.00"/>
        <vehicle id="11gnss" x="655.01" y="1002.35" angle="117.31" type="DEFAULT_VEHTYPE" speed="6.80" pos="18.32" lane="-45272663#2_0" slope="0.00"/>
        <vehicle id="11gps" x="643.26" y="1008.42" angle="117.31" type="DEFAULT_VEHTYPE" speed="0.00" pos="5.10" lane="-45272663#2_0" slope="0.00"/>
        <vehicle id="12gnss" x="1001.67" y="1611.89" angle="234.65" type="DEFAULT_VEHTYPE" speed="4.66" pos="2.56" lane=":cluster_2377424310_2377424314_0_0" slope="0.00"/>
        <vehicle id="13gnss" x="654.37" y="1852.63" angle="180.29" type="DEFAULT_VEHTYPE" speed="1.75" pos="6.85" lane="-25487388#1_0" slope="0.00"/>
        <vehicle id="14gnss" x="1115.12" y="862.97" angle="198.83" type="DEFAULT_VEHTYPE" speed="0.00" pos="5.10" lane="34600338#1_0" slope="0.00"/>
        <vehicle id="1gnss" x="1603.11" y="1914.55" angle="68.21" type="DEFAULT_VEHTYPE" speed="8.29" pos="9.45" lane="-25650354#3_0" slope="0.00"/>
        <vehicle id="1gps" x="1594.28" y="1896.36" angle="337.74" type="DEFAULT_VEHTYPE" speed="9.41" pos="4.05" lane="-309286214#0_0" slope="0.00"/>
        <vehicle id="2gnss" x="1553.02" y="896.26" angle="69.34" type="DEFAULT_VEHTYPE" speed="0.59" pos="5.76" lane="25928106#13_0" slope="0.00"/>
        <vehicle id="2gps" x="1539.64" y="891.21" angle="69.35" type="DEFAULT_VEHTYPE" speed="9.67" pos="8.15" lane="25928106#12_0" slope="0.00"/>
        <vehicle id="3gnss" x="865.00" y="562.83" angle="157.80" type="DEFAULT_VEHTYPE" speed="9.67" pos="3.81" lane=":691474480_12_0" slope="0.00"/>
        <vehicle id="3gps" x="845.91" y="609.85" angle="157.91" type="DEFAULT_VEHTYPE" speed="10.65" pos="59.34" lane="45272629#3_0" slope="0.00"/>
        <vehicle id="4gnss" x="1151.38" y="434.41" angle="68.00" type="DEFAULT_VEHTYPE" speed="10.89" pos="28.34" lane="25670996#0_0" slope="0.00"/>
        <vehicle id="4gps" x="1124.95" y="423.78" angle="120.48" type="DEFAULT_VEHTYPE" speed="5.38" pos="7.61" lane=":279853537_3_0" slope="0.00"/>
        <vehicle id="5gnss" x="1690.80" y="609.15" angle="279.22" type="DEFAULT_VEHTYPE" speed="6.82" pos="0.33" lane=":5195891045_0_0" slope="0.00"/>
        <vehicle id="5gps" x="1704.91" y="614.13" angle="190.52" type="DEFAULT_VEHTYPE" speed="4.99" pos="11.19" lane="-25928101#0_0" slope="0.00"/>
        <vehicle id="6gnss" x="422.32" y="1082.41" angle="130.98" type="DEFAULT_VEHTYPE" speed="15.56" pos="7.60" lane=":268395503_7_0" slope="0.00"/>
        <vehicle id="6gps" x="399.21" y="1114.66" angle="159.59" type="DEFAULT_VEHTYPE" speed="9.35" pos="33.09" lane="-24564600#3_0" slope="0.00"/>
        <vehicle id="7gnss" x="742.08" y="720.36" angle="247.73" type="DEFAULT_VEHTYPE" speed="8.13" pos="39.96" lane="25670585#8_0" slope="0.00"/>
        <vehicle id="7gps" x="762.84" y="728.87" angle="247.73" type="DEFAULT_VEHTYPE" speed="8.82" pos="17.53" lane="25670585#8_0" slope="0.00"/>
        <vehicle id="8gnss" x="1596.73" y="859.77" angle="192.68" type="DEFAULT_VEHTYPE" speed="5.33" pos="33.72" lane="-25928101#11_0" slope="0.00"/>
        <vehicle id="8gps" x="1601.51" y="881.01" angle="192.68" type="DEFAULT_VEHTYPE" speed="4.00" pos="11.95" lane="-25928101#11_0" slope="0.00"/>
        <vehicle id="9gnss" x="1567.21" y="905.76" angle="276.93" type="DEFAULT_VEHTYPE" speed="9.64" pos="11.89" lane=":cluster_10842301906_3151663396_5195888692_6_0" slope="0.00"/>
        <vehicle id="9gps" x="1592.08" y="902.71" angle="276.59" type="DEFAULT_VEHTYPE" speed="0.68" pos="7.63" lane="291450281#6_0" slope="0.00"/>
    </timestep>
    <timestep time="15.00">
        <vehicle id="10gnss" x="1890.08" y="857.01" angle="280.81" type="DEFAULT_VEHTYPE" speed="9.72" pos="34.74" lane="291450281#0_0" slope="0.00"/>
        <vehicle id="10gps" x="1912.71" y="852.69" angle="280.76" type="DEFAULT_VEHTYPE" speed="4.42" pos="11.70" lane="291450281#0_0" slope="0.00"/>
        <vehicle id="11gnss" x="662.99" y="998.23" angle="117.31" type="DEFAULT_VEHTYPE" speed="8.98" pos="27.30" lane="-45272663#2_0" slope="0.00"/>
        <vehicle id="11gps" x="644.98" y="1007.53" angle="117.31" type="DEFAULT_VEHTYPE" speed="1.94" pos="7.04" lane="-45272663#2_0" slope="0.00"/>
        <vehicle id="12gnss" x="996.17" y="1609.41" angle="246.49" type="DEFAULT_VEHTYPE" speed="6.04" pos="3.11" lane="24567187#0_0" slope="0.00"/>
        <vehicle id="12gps" x="1007.50" y="1616.06" angle="225.35" type="DEFAULT_VEHTYPE" speed="0.00" pos="5.10" lane="751833238_0" slope="0.00"/>
        <vehicle id="13gnss" x="654.35" y="1848.97" angle="180.29" type="DEFAULT_VEHTYPE" speed="3.66" pos="10.51" lane="-25487388#1_0" slope="0.00"/>
        <vehicle id="14gnss" x="1114.40" y="860.85" angle="198.83" type="DEFAULT_VEHTYPE" speed="2.25" pos="7.35" lane="34600338#1_0" slope="0.00"/>
        <vehicle id="15gnss" x="1769.72" y="879.51" angle="280.42" type="DEFAULT_VEHTYPE" speed="0.00" pos="5.10" lane="291450281#2_0" slope="0.00"/>
        <vehicle id="1gnss" x="1613.04" y="1918.52" angle="68.21" type="DEFAULT_VEHTYPE" speed="10.70" pos="20.15" lane="-25650354#3_0" slope="0.00"/>
        <vehicle id="1gps" x="1592.01" y="1901.91" angle="337.73" type="DEFAULT_VEHTYPE" speed="6.00" pos="10.05" lane="-309286214#0_0" slope="0.00"/>
        <vehicle id="2gnss" x="1553.47" y="896.43" angle="69.34" type="DEFAULT_VEHTYPE" speed="0.49" pos="6.24" lane="25928106#13_0" slope="0.00"/>
        <vehicle id="2gps" x="1544.47" y="893.04" angle="69.33" type="DEFAULT_VEHTYPE" speed="5.17" pos="1.63" lane=":5195888698_1_0" slope="0.00"/>
        <vehicle id="3gnss" x="866.96" y="558.05" angle="157.71" type="DEFAULT_VEHTYPE" speed="5.17" pos="1.63" lane="45272629#4_0" slope="0.00"/>
        <vehicle id="3gps" x="850.24" y="599.18" angle="157.91" type="DEFAULT_VEHTYPE" speed="11.51" pos="70.85" lane="45272629#3_0" slope="0.00"/>
        <vehicle id="4gnss" x="1163.82" y="439.43" angle="68.03" type="DEFAULT_VEHTYPE" speed="13.42" pos="2.36" lane="25670996#1_0" slope="0.00"/>
        <vehicle id="4gps" x="1129.13" y="425.42" angle="70.16" type="DEFAULT_VEHTYPE" speed="4.49" pos="4.34" lane="25670996#0_0" slope="0.00"/>