<?xml version="1.0" encoding="UTF-8"?>

<!-- generated on 2025-01-03 21:21:38 by Eclipse SUMO GUI Version 1.12.0
<configuration xmlns:xsi="http://www.w3.org/2001/XMLSchema-instance" xsi:noNamespaceSchemaLocation="http://sumo.dlr.de/xsd/sumoConfiguration.xsd">

    <input>
        <net-file value="campus.net.xml"/>
        <route-files value="campus.rou.xml"/>
        <additional-files value="collision_settings.add.xml"/>
    </input>

    <output>
        <fcd-output value="fcd_output.xml"/>
        <tripinfo-output value="tripinfo_output.xml"/>
    </output>

    <time>
        <begin value="0"/>
        <end value="1000"/>
    </time>

    <report>
        <message-log value="results/sumo-0.log"/>
        <no-step-log value="true"/>
    </report>

    <traci_server>
        <remote-port value="47181"/>
    </traci_server>

    <random_number>
        <seed value="23423"/>
    </random_number>

    <gui_only>
        <quit-on-end value="true"/>
    </gui_only>

</configuration>
-->

<tripinfos xmlns:xsi="http://www.w3.org/2001/XMLSchema-instance" xsi:noNamespaceSchemaLocation="http://sumo.dlr.de/xsd/tripinfo_file.xsd">
    <tripinfo id="28gnss" depart="28.00" departLane="-25670887#5_0" departPos="5.10" departSpeed="0.00" departDelay="0.00" arrival="49.00" arrivalLane="25928106#3_0" arrivalPos="10.91" arrivalSpeed="7.39" duration="21.00" routeLength="189.21" waitingTime="0.00" waitingCount="0" stopTime="0.00" timeLoss="7.36" rerouteNo="0" devices="tripinfo_28gnss fcd_28gnss" vType="DEFAULT_VEHTYPE" speedFactor="0.85" vaporized=""/>
    <tripinfo id="28gps" depart="31.00" departLane="-25670887#5_0" departPos="5.10" departSpeed="0.00" departDelay="3.00" arrival="51.00" arrivalLane="25928106#3_0" arrivalPos="10.91" arrivalSpeed="8.87" duration="20.00" routeLength="189.21" waitingTime="0.00" waitingCount="0" stopTime="0.00" timeLoss="9.80" rerouteNo="0" devices="tripinfo_28gps fcd_28gps" vType="DEFAULT_VEHTYPE" speedFactor="1.17" vaporized=""/>
</tripinfos>
